<?xml version="1.0"?>
<VTKFile byte_order="LittleEndian" type="UnstructuredGrid" version="0.1">
<UnstructuredGrid>
<Piece NumberOfCells="2" NumberOfPoints="5">
<PointData>
<DataArray Name="Flash Strength Points" format="ascii" type="Float64">
1 1 1 1 1 
</DataArray>
<DataArray Name="pointData2" format="ascii" type="Float64">
5 0 1 2 3 
</DataArray>
</PointData>
<CellData>
<DataArray Name="cell Colour" format="ascii" type="Float64">
1 2 
</DataArray>
<DataArray Name="cellData2" format="ascii" type="Float64">
5 6 
</DataArray>
</CellData>
<Points>
<DataArray NumberOfComponents="3" format="ascii" type="Float64">
-1 1 2 0 0 0 0 3 0 1 2 2 1 3 -2 
</DataArray>
</Points>
<Cells>
<DataArray Name="connectivity" format="ascii" type="Int64">
0 1 2 3 3 1 2 4 
</DataArray>
<DataArray Name="offsets" format="ascii" type="Int64">
4 8 
</DataArray>
<DataArray Name="types" format="ascii" type="Int8">
10 10 
</DataArray>
</Cells>
</Piece>
</UnstructuredGrid>
</VTKFile>
