<?xml version="1.0"?>
<VTKFile byte_order="LittleEndian" type="UnstructuredGrid" version="0.1">
<UnstructuredGrid>
<Piece NumberOfCells="5" NumberOfPoints="10">
<PointData>
<DataArray Name="Flash Strength Points" format="ascii" type="Float64">
1 1 1 1 1 1 0 0 0 0 
</DataArray>
</PointData>
<CellData>
<DataArray Name="cell Colour" format="ascii" type="Float64">
1 2 3 4 0 
</DataArray>
</CellData>
<Points>
<DataArray NumberOfComponents="3" format="ascii" type="Float64">
0 0 0 0 3 0 1 2 2 1 3 -2 -2 2 0 -1 1 2 2 -2 -2 2 -2 2 -2 -2 2 -2 -2 -2 
</DataArray>
</Points>
<Cells>
<DataArray Name="connectivity" format="ascii" type="Int64">
5 0 1 2 2 0 1 3 3 0 1 4 4 0 1 5 8 7 6 9 0 
</DataArray>
<DataArray Name="offsets" format="ascii" type="Int64">
4 8 12 16 21 
</DataArray>
<DataArray Name="types" format="ascii" type="Int8">
10 10 10 10 14 
</DataArray>
</Cells>
</Piece>
</UnstructuredGrid>
</VTKFile>
